<?xml version="1.0"?>
<VTKFile type="UnstructuredGrid"  version="0.1"  >
<UnstructuredGrid>
<Piece  NumberOfPoints="26" NumberOfCells="58">
<Points>
<DataArray  type="Float64"  NumberOfComponents="3"  format="ascii">0.75 0 0  1.25 0 0  0 1.25 0  0 0.75 0  1 0 0  1.225981600504169 0.2438629025194988 0  1.154849415639608 0.4783542904551555 0  1.039337015379215 0.6944627912729566 0  0.883883476484838 0.8838834764815309 0  0.6944627912758876 1.039337015377256 0  0.4783542904573998 1.154849415638679 0  0.2438629025205366 1.225981600503963 0  0 1 0  0.2317627457806051 0.713292387221562 0  0.4408389392184352 0.6067627457818787 0  0.6067627457805209 0.440838939220304 0  0.7132923872212188 0.2317627457816612 0  0.8725186705362684 0.4032657884745776 0  0.4032657884730102 0.8725186705367732 0  0.6860692567411083 0.6860692567418973 0  1.000501240515515 0.2426342814012391 0  0.2426342814007091 1.000501240516058 0  0.8739034300935928 0.5978124237744035 0  0.5978124237751131 0.8739034300930023 0  0.1557228284178365 0.8602327301777185 0  0.8602327301772731 0.1557228284184272 0  </DataArray>
</Points>
<Cells>
<DataArray  type="UInt32"  Name="connectivity"  format="ascii">0 4  0 16  0 25  1 4  1 5  2 11  2 12  3 12  3 13  3 24  4 5  4 20  4 25  5 6  5 20  6 7  6 17  6 20  6 22  7 8  7 22  8 9  8 19  8 22  8 23  9 10  9 23  10 11  10 18  10 21  10 23  11 12  11 21  12 21  12 24  13 14  13 18  13 24  14 15  14 18  14 19  14 23  15 16  15 17  15 19  15 22  16 17  16 25  17 20  17 22  17 25  18 21  18 23  18 24  19 22  19 23  20 25  21 24  </DataArray>
<DataArray  type="UInt32"  Name="offsets"  format="ascii">2 4 6 8 10 12 14 16 18 20 22 24 26 28 30 32 34 36 38 40 42 44 46 48 50 52 54 56 58 60 62 64 66 68 70 72 74 76 78 80 82 84 86 88 90 92 94 96 98 100 102 104 106 108 110 112 114 116 </DataArray>
<DataArray  type="UInt8"  Name="types"  format="ascii">3 3 3 3 3 3 3 3 3 3 3 3 3 3 3 3 3 3 3 3 3 3 3 3 3 3 3 3 3 3 3 3 3 3 3 3 3 3 3 3 3 3 3 3 3 3 3 3 3 3 3 3 3 3 3 3 3 3 </DataArray>
</Cells>
<CellData  Scalars="f">
<DataArray  type="Float64"  Name="f"  format="ascii">1 4 0 1 2 2 3 3 4 0 0 0 0 2 0 2 0 0 0 2 0 2 0 0 0 2 0 2 0 0 0 0 0 0 0 4 0 0 4 0 0 0 4 0 0 0 0 0 0 0 0 0 0 0 0 0 0 0 </DataArray>
</CellData>
</Piece>
</UnstructuredGrid>
</VTKFile>