<?xml version="1.0"?>
<VTKFile type="UnstructuredGrid"  version="0.1"  >
<UnstructuredGrid>
<Piece  NumberOfPoints="26" NumberOfCells="33">
<Points>
<DataArray  type="Float64"  NumberOfComponents="3"  format="ascii">0.75 0 0  1.25 0 0  0 1.25 0  0 0.75 0  1 0 0  1.225981600504169 0.2438629025194988 0  1.154849415639608 0.4783542904551555 0  1.039337015379215 0.6944627912729566 0  0.883883476484838 0.8838834764815309 0  0.6944627912758876 1.039337015377256 0  0.4783542904573998 1.154849415638679 0  0.2438629025205366 1.225981600503963 0  0 1 0  0.2317627457806051 0.713292387221562 0  0.4408389392184352 0.6067627457818787 0  0.6067627457805209 0.440838939220304 0  0.7132923872212188 0.2317627457816612 0  0.8725186705362684 0.4032657884745776 0  0.4032657884730102 0.8725186705367732 0  0.6860692567411083 0.6860692567418973 0  1.000501240515515 0.2426342814012391 0  0.2426342814007091 1.000501240516058 0  0.8739034300935928 0.5978124237744035 0  0.5978124237751131 0.8739034300930023 0  0.1557228284178365 0.8602327301777185 0  0.8602327301772731 0.1557228284184272 0  </DataArray>
</Points>
<Cells>
<DataArray  type="UInt32"  Name="connectivity"  format="ascii">1 4 5  2 11 12  15 17 22  14 18 23  15 19 22  14 19 23  6 7 22  9 10 23  6 17 22  10 18 23  4 5 20  11 12 21  17 20 25  18 21 24  16 17 25  13 18 24  6 17 20  10 18 21  15 16 17  13 14 18  14 15 19  10 11 21  5 6 20  8 19 23  8 19 22  8 9 23  7 8 22  3 12 24  0 4 25  0 16 25  3 13 24  4 20 25  12 21 24  </DataArray>
<DataArray  type="UInt32"  Name="offsets"  format="ascii">3 6 9 12 15 18 21 24 27 30 33 36 39 42 45 48 51 54 57 60 63 66 69 72 75 78 81 84 87 90 93 96 99 </DataArray>
<DataArray  type="UInt8"  Name="types"  format="ascii">5 5 5 5 5 5 5 5 5 5 5 5 5 5 5 5 5 5 5 5 5 5 5 5 5 5 5 5 5 5 5 5 5 </DataArray>
</Cells>
<CellData  Scalars="f">
<DataArray  type="Float64"  Name="f"  format="ascii">10 10 10 10 10 10 10 10 10 10 10 10 10 10 10 10 10 10 10 10 10 10 10 10 10 10 10 10 10 10 10 10 10 </DataArray>
</CellData>
</Piece>
</UnstructuredGrid>
</VTKFile>